<?xml version="1.0" encoding="UTF-8"?>

<!-- generated on 08/29/20 11:32:48 by Eclipse SUMO GUI Version 1.6.0
<configuration xmlns:xsi="http://www.w3.org/2001/XMLSchema-instance" xsi:noNamespaceSchemaLocation="http://sumo.dlr.de/xsd/sumoConfiguration.xsd">

    <input>
        <net-file value="test.net.xml"/>
        <route-files value="test.rou.xml"/>
    </input>

    <output>
        <netstate-dump value="test_dump.xml"/>
        <fcd-output value="testTrace.xml"/>
        <tripinfo-output value="trips.trips.xml"/>
    </output>

    <time>
        <begin value="0"/>
        <end value="200000"/>
    </time>

    <traci_server>
        <remote-port value="53818"/>
    </traci_server>

</configuration>
-->

<tripinfos xmlns:xsi="http://www.w3.org/2001/XMLSchema-instance" xsi:noNamespaceSchemaLocation="http://sumo.dlr.de/xsd/tripinfo_file.xsd">
    <tripinfo id="1" depart="1.00" departLane="15420484#2_0" departPos="5.10" departSpeed="0.00" departDelay="0.20" arrival="10.00" arrivalLane="15420484#2_0" arrivalPos="75.31" arrivalSpeed="13.53" duration="9.00" routeLength="70.21" waitingTime="0.00" waitingCount="0" stopTime="0.00" timeLoss="3.69" rerouteNo="0" devices="tripinfo_1 fcd_1" vType="DEFAULT_VEHTYPE" speedFactor="1.06" vaporized=""/>
    <tripinfo id="3" depart="4.00" departLane="15420484#2_0" departPos="5.10" departSpeed="0.00" departDelay="1.60" arrival="13.00" arrivalLane="15420484#2_0" arrivalPos="75.31" arrivalSpeed="12.96" duration="9.00" routeLength="70.21" waitingTime="0.00" waitingCount="0" stopTime="0.00" timeLoss="3.13" rerouteNo="0" devices="tripinfo_3 fcd_3" vType="DEFAULT_VEHTYPE" speedFactor="1.01" vaporized=""/>
    <tripinfo id="5" depart="7.00" departLane="15420484#2_0" departPos="5.10" departSpeed="0.00" departDelay="3.00" arrival="17.00" arrivalLane="15420484#2_0" arrivalPos="75.31" arrivalSpeed="13.36" duration="10.00" routeLength="70.21" waitingTime="0.00" waitingCount="0" stopTime="0.00" timeLoss="4.25" rerouteNo="0" devices="tripinfo_5 fcd_5" vType="DEFAULT_VEHTYPE" speedFactor="1.03" vaporized=""/>
    <tripinfo id="8" depart="10.00" departLane="15420484#2_0" departPos="5.10" departSpeed="0.00" departDelay="3.60" arrival="19.00" arrivalLane="15420484#2_0" arrivalPos="75.31" arrivalSpeed="14.31" duration="9.00" routeLength="70.21" waitingTime="0.00" waitingCount="0" stopTime="0.00" timeLoss="3.91" rerouteNo="0" devices="tripinfo_8 fcd_8" vType="DEFAULT_VEHTYPE" speedFactor="1.05" vaporized=""/>
    <tripinfo id="2" depart="2.00" departLane="597602756#0_0" departPos="5.10" departSpeed="0.00" departDelay="0.40" arrival="22.00" arrivalLane="597602756#0_0" arrivalPos="320.49" arrivalSpeed="20.25" duration="20.00" routeLength="315.39" waitingTime="0.00" waitingCount="0" stopTime="0.00" timeLoss="4.86" rerouteNo="0" devices="tripinfo_2 fcd_2" vType="DEFAULT_VEHTYPE" speedFactor="0.94" vaporized=""/>
    <tripinfo id="11" depart="14.00" departLane="15420484#2_0" departPos="5.10" departSpeed="0.00" departDelay="5.20" arrival="23.00" arrivalLane="15420484#2_0" arrivalPos="75.31" arrivalSpeed="12.11" duration="9.00" routeLength="70.21" waitingTime="0.00" waitingCount="0" stopTime="0.00" timeLoss="3.02" rerouteNo="0" devices="tripinfo_11 fcd_11" vType="DEFAULT_VEHTYPE" speedFactor="0.94" vaporized=""/>
    <tripinfo id="4" depart="5.00" departLane="597602756#0_0" departPos="5.10" departSpeed="0.00" departDelay="1.80" arrival="25.00" arrivalLane="597602756#0_0" arrivalPos="320.49" arrivalSpeed="22.85" duration="20.00" routeLength="315.39" waitingTime="0.00" waitingCount="0" stopTime="0.00" timeLoss="6.58" rerouteNo="0" devices="tripinfo_4 fcd_4" vType="DEFAULT_VEHTYPE" speedFactor="1.08" vaporized=""/>
    <tripinfo id="23" depart="19.00" departLane="44884008#2_0" departPos="5.10" departSpeed="0.00" departDelay="0.60" arrival="27.00" arrivalLane="44884008#2_0" arrivalPos="75.75" arrivalSpeed="14.90" duration="8.00" routeLength="70.65" waitingTime="0.00" waitingCount="0" stopTime="0.00" timeLoss="3.58" rerouteNo="0" devices="tripinfo_23 fcd_23" vType="DEFAULT_VEHTYPE" speedFactor="1.16" vaporized=""/>
    <tripinfo id="24" depart="20.00" departLane="15420484#2_0" departPos="5.10" departSpeed="0.00" departDelay="0.80" arrival="29.00" arrivalLane="15420484#2_0" arrivalPos="75.31" arrivalSpeed="13.63" duration="9.00" routeLength="70.21" waitingTime="0.00" waitingCount="0" stopTime="0.00" timeLoss="3.42" rerouteNo="0" devices="tripinfo_24 fcd_24" vType="DEFAULT_VEHTYPE" speedFactor="1.02" vaporized=""/>
    <tripinfo id="6" depart="8.00" departLane="597602756#0_0" departPos="5.10" departSpeed="0.00" departDelay="3.20" arrival="31.00" arrivalLane="597602756#0_0" arrivalPos="320.49" arrivalSpeed="17.18" duration="23.00" routeLength="315.39" waitingTime="0.00" waitingCount="0" stopTime="0.00" timeLoss="5.09" rerouteNo="0" devices="tripinfo_6 fcd_6" vType="DEFAULT_VEHTYPE" speedFactor="0.83" vaporized=""/>
    <tripinfo id="26" depart="23.00" departLane="15420484#2_0" departPos="5.10" departSpeed="0.00" departDelay="2.20" arrival="32.00" arrivalLane="15420484#2_0" arrivalPos="75.31" arrivalSpeed="12.44" duration="9.00" routeLength="70.21" waitingTime="0.00" waitingCount="0" stopTime="0.00" timeLoss="3.46" rerouteNo="0" devices="tripinfo_26 fcd_26" vType="DEFAULT_VEHTYPE" speedFactor="0.98" vaporized=""/>
    <tripinfo id="10" depart="11.00" departLane="597602756#0_0" departPos="5.10" departSpeed="0.00" departDelay="3.00" arrival="33.00" arrivalLane="597602756#0_0" arrivalPos="320.49" arrivalSpeed="19.11" duration="22.00" routeLength="315.39" waitingTime="0.00" waitingCount="0" stopTime="0.00" timeLoss="5.46" rerouteNo="0" devices="tripinfo_10 fcd_10" vType="DEFAULT_VEHTYPE" speedFactor="0.89" vaporized=""/>
    <tripinfo id="28" depart="26.00" departLane="15420484#2_0" departPos="5.10" departSpeed="0.00" departDelay="3.60" arrival="35.00" arrivalLane="15420484#2_0" arrivalPos="75.31" arrivalSpeed="10.97" duration="9.00" routeLength="70.21" waitingTime="0.00" waitingCount="0" stopTime="0.00" timeLoss="2.62" rerouteNo="0" devices="tripinfo_28 fcd_28" vType="DEFAULT_VEHTYPE" speedFactor="0.83" vaporized=""/>
    <tripinfo id="12" depart="14.00" departLane="597602756#0_0" departPos="5.10" departSpeed="0.00" departDelay="4.40" arrival="36.00" arrivalLane="597602756#0_0" arrivalPos="320.49" arrivalSpeed="18.18" duration="22.00" routeLength="315.39" waitingTime="0.00" waitingCount="0" stopTime="0.00" timeLoss="4.80" rerouteNo="0" devices="tripinfo_12 fcd_12" vType="DEFAULT_VEHTYPE" speedFactor="0.86" vaporized=""/>
    <tripinfo id="13" depart="17.00" departLane="597602756#0_0" departPos="5.10" departSpeed="0.00" departDelay="6.60" arrival="37.00" arrivalLane="597602756#0_0" arrivalPos="320.49" arrivalSpeed="22.34" duration="20.00" routeLength="315.39" waitingTime="0.00" waitingCount="0" stopTime="0.00" timeLoss="6.92" rerouteNo="0" devices="tripinfo_13 fcd_13" vType="DEFAULT_VEHTYPE" speedFactor="1.09" vaporized=""/>
    <tripinfo id="30" depart="29.00" departLane="15420484#2_0" departPos="5.10" departSpeed="0.00" departDelay="5.00" arrival="38.00" arrivalLane="15420484#2_0" arrivalPos="75.31" arrivalSpeed="11.94" duration="9.00" routeLength="70.21" waitingTime="0.00" waitingCount="0" stopTime="0.00" timeLoss="3.13" rerouteNo="0" devices="tripinfo_30 fcd_30" vType="DEFAULT_VEHTYPE" speedFactor="0.92" vaporized=""/>
    <tripinfo id="14" depart="20.00" departLane="597602756#0_0" departPos="5.10" departSpeed="0.00" departDelay="8.80" arrival="40.00" arrivalLane="597602756#0_0" arrivalPos="320.49" arrivalSpeed="22.15" duration="20.00" routeLength="315.39" waitingTime="0.00" waitingCount="0" stopTime="0.00" timeLoss="5.72" rerouteNo="0" devices="tripinfo_14 fcd_14" vType="DEFAULT_VEHTYPE" speedFactor="1.03" vaporized=""/>
    <tripinfo id="20" depart="16.00" departLane="260998164#3_0" departPos="5.10" departSpeed="0.00" departDelay="0.00" arrival="40.00" arrivalLane="260998164#3_0" arrivalPos="413.24" arrivalSpeed="24.33" duration="24.00" routeLength="408.14" waitingTime="0.00" waitingCount="0" stopTime="0.00" timeLoss="6.60" rerouteNo="0" devices="tripinfo_20 fcd_20" vType="DEFAULT_VEHTYPE" speedFactor="0.88" vaporized=""/>
    <tripinfo id="21" depart="19.00" departLane="260998164#3_0" departPos="5.10" departSpeed="0.00" departDelay="2.20" arrival="41.00" arrivalLane="260998164#3_0" arrivalPos="413.24" arrivalSpeed="25.16" duration="22.00" routeLength="408.14" waitingTime="0.00" waitingCount="0" stopTime="0.00" timeLoss="6.29" rerouteNo="0" devices="tripinfo_21 fcd_21" vType="DEFAULT_VEHTYPE" speedFactor="0.94" vaporized=""/>
    <tripinfo id="32" depart="32.00" departLane="15420484#2_0" departPos="5.10" departSpeed="0.00" departDelay="6.40" arrival="41.00" arrivalLane="15420484#2_0" arrivalPos="75.31" arrivalSpeed="15.02" duration="9.00" routeLength="70.21" waitingTime="0.00" waitingCount="0" stopTime="0.00" timeLoss="3.89" rerouteNo="0" devices="tripinfo_32 fcd_32" vType="DEFAULT_VEHTYPE" speedFactor="1.13" vaporized=""/>
    <tripinfo id="15" depart="23.00" departLane="597602756#0_0" departPos="5.10" departSpeed="0.00" departDelay="11.00" arrival="43.00" arrivalLane="597602756#0_0" arrivalPos="320.49" arrivalSpeed="22.46" duration="20.00" routeLength="315.39" waitingTime="0.00" waitingCount="0" stopTime="0.00" timeLoss="5.78" rerouteNo="0" devices="tripinfo_15 fcd_15" vType="DEFAULT_VEHTYPE" speedFactor="1.05" vaporized=""/>
    <tripinfo id="22" depart="22.00" departLane="260998164#3_0" departPos="5.10" departSpeed="0.00" departDelay="4.40" arrival="44.00" arrivalLane="260998164#3_0" arrivalPos="413.24" arrivalSpeed="25.51" duration="22.00" routeLength="408.14" waitingTime="0.00" waitingCount="0" stopTime="0.00" timeLoss="6.05" rerouteNo="0" devices="tripinfo_22 fcd_22" vType="DEFAULT_VEHTYPE" speedFactor="0.94" vaporized=""/>
    <tripinfo id="43" depart="35.00" departLane="44884008#2_0" departPos="5.10" departSpeed="0.00" departDelay="0.60" arrival="44.00" arrivalLane="44884008#2_0" arrivalPos="75.75" arrivalSpeed="11.59" duration="9.00" routeLength="70.65" waitingTime="0.00" waitingCount="0" stopTime="0.00" timeLoss="2.69" rerouteNo="0" devices="tripinfo_43 fcd_43" vType="DEFAULT_VEHTYPE" speedFactor="0.90" vaporized=""/>
    <tripinfo id="44" depart="36.00" departLane="15420484#2_0" departPos="5.10" departSpeed="0.00" departDelay="0.80" arrival="44.00" arrivalLane="15420484#2_0" arrivalPos="75.31" arrivalSpeed="13.68" duration="8.00" routeLength="70.21" waitingTime="0.00" waitingCount="0" stopTime="0.00" timeLoss="2.92" rerouteNo="0" devices="tripinfo_44 fcd_44" vType="DEFAULT_VEHTYPE" speedFactor="1.03" vaporized=""/>
    <tripinfo id="16" depart="26.00" departLane="597602756#0_0" departPos="5.10" departSpeed="0.00" departDelay="13.20" arrival="45.00" arrivalLane="597602756#0_0" arrivalPos="320.49" arrivalSpeed="24.73" duration="19.00" routeLength="315.39" waitingTime="0.00" waitingCount="0" stopTime="0.00" timeLoss="5.82" rerouteNo="0" devices="tripinfo_16 fcd_16" vType="DEFAULT_VEHTYPE" speedFactor="1.12" vaporized=""/>
    <tripinfo id="46" depart="39.00" departLane="15420484#2_0" departPos="5.10" departSpeed="0.00" departDelay="2.20" arrival="48.00" arrivalLane="15420484#2_0" arrivalPos="75.31" arrivalSpeed="13.96" duration="9.00" routeLength="70.21" waitingTime="0.00" waitingCount="0" stopTime="0.00" timeLoss="3.91" rerouteNo="0" devices="tripinfo_46 fcd_46" vType="DEFAULT_VEHTYPE" speedFactor="1.09" vaporized=""/>
    <tripinfo id="17" depart="29.00" departLane="597602756#0_0" departPos="5.10" departSpeed="0.00" departDelay="15.40" arrival="49.00" arrivalLane="597602756#0_0" arrivalPos="320.49" arrivalSpeed="20.95" duration="20.00" routeLength="315.39" waitingTime="0.00" waitingCount="0" stopTime="0.00" timeLoss="4.84" rerouteNo="0" devices="tripinfo_17 fcd_17" vType="DEFAULT_VEHTYPE" speedFactor="0.99" vaporized=""/>
    <tripinfo id="49" depart="42.00" departLane="15420484#2_0" departPos="5.10" departSpeed="0.00" departDelay="2.80" arrival="50.00" arrivalLane="15420484#2_0" arrivalPos="75.31" arrivalSpeed="13.67" duration="8.00" routeLength="70.21" waitingTime="0.00" waitingCount="0" stopTime="0.00" timeLoss="3.16" rerouteNo="0" devices="tripinfo_49 fcd_49" vType="DEFAULT_VEHTYPE" speedFactor="1.04" vaporized=""/>
    <tripinfo id="18" depart="32.00" departLane="597602756#0_0" departPos="5.10" departSpeed="0.00" departDelay="17.60" arrival="53.00" arrivalLane="597602756#0_0" arrivalPos="320.49" arrivalSpeed="19.84" duration="21.00" routeLength="315.39" waitingTime="0.00" waitingCount="0" stopTime="0.00" timeLoss="4.94" rerouteNo="0" devices="tripinfo_18 fcd_18" vType="DEFAULT_VEHTYPE" speedFactor="0.93" vaporized=""/>
    <tripinfo id="51" depart="45.00" departLane="15420484#2_0" departPos="5.10" departSpeed="0.00" departDelay="4.20" arrival="53.00" arrivalLane="15420484#2_0" arrivalPos="75.31" arrivalSpeed="13.34" duration="8.00" routeLength="70.21" waitingTime="0.00" waitingCount="0" stopTime="0.00" timeLoss="2.87" rerouteNo="0" devices="tripinfo_51 fcd_51" vType="DEFAULT_VEHTYPE" speedFactor="1.00" vaporized=""/>
    <tripinfo id="25" depart="35.00" departLane="597602756#0_0" departPos="5.10" departSpeed="0.00" departDelay="15.00" arrival="55.00" arrivalLane="597602756#0_0" arrivalPos="320.49" arrivalSpeed="21.94" duration="20.00" routeLength="315.39" waitingTime="0.00" waitingCount="0" stopTime="0.00" timeLoss="5.35" rerouteNo="0" devices="tripinfo_25 fcd_25" vType="DEFAULT_VEHTYPE" speedFactor="1.01" vaporized=""/>
    <tripinfo id="40" depart="32.00" departLane="260998164#3_0" departPos="5.10" departSpeed="0.00" departDelay="0.00" arrival="55.00" arrivalLane="260998164#3_0" arrivalPos="413.24" arrivalSpeed="26.75" duration="23.00" routeLength="408.14" waitingTime="0.00" waitingCount="0" stopTime="0.00" timeLoss="7.03" rerouteNo="0" devices="tripinfo_40 fcd_40" vType="DEFAULT_VEHTYPE" speedFactor="0.97" vaporized=""/>
    <tripinfo id="41" depart="35.00" departLane="260998164#3_0" departPos="5.10" departSpeed="0.00" departDelay="2.20" arrival="57.00" arrivalLane="260998164#3_0" arrivalPos="413.24" arrivalSpeed="31.56" duration="22.00" routeLength="408.14" waitingTime="0.00" waitingCount="0" stopTime="0.00" timeLoss="8.69" rerouteNo="0" devices="tripinfo_41 fcd_41" vType="DEFAULT_VEHTYPE" speedFactor="1.18" vaporized=""/>
    <tripinfo id="53" depart="48.00" departLane="15420484#2_0" departPos="5.10" departSpeed="0.00" departDelay="5.60" arrival="57.00" arrivalLane="15420484#2_0" arrivalPos="75.31" arrivalSpeed="11.09" duration="9.00" routeLength="70.21" waitingTime="0.00" waitingCount="0" stopTime="0.00" timeLoss="2.63" rerouteNo="0" devices="tripinfo_53 fcd_53" vType="DEFAULT_VEHTYPE" speedFactor="0.88" vaporized=""/>
    <tripinfo id="27" depart="38.00" departLane="597602756#0_0" departPos="5.10" departSpeed="0.00" departDelay="16.40" arrival="59.00" arrivalLane="597602756#0_0" arrivalPos="320.49" arrivalSpeed="18.92" duration="21.00" routeLength="315.39" waitingTime="0.00" waitingCount="0" stopTime="0.00" timeLoss="4.79" rerouteNo="0" devices="tripinfo_27 fcd_27" vType="DEFAULT_VEHTYPE" speedFactor="0.89" vaporized=""/>
    <tripinfo id="42" depart="38.00" departLane="260998164#3_0" departPos="5.10" departSpeed="0.00" departDelay="4.40" arrival="60.00" arrivalLane="260998164#3_0" arrivalPos="413.24" arrivalSpeed="30.58" duration="22.00" routeLength="408.14" waitingTime="0.00" waitingCount="0" stopTime="0.00" timeLoss="7.70" rerouteNo="0" devices="tripinfo_42 fcd_42" vType="DEFAULT_VEHTYPE" speedFactor="1.10" vaporized=""/>
    <tripinfo id="64" depart="52.00" departLane="44884008#2_0" departPos="5.10" departSpeed="0.00" departDelay="0.80" arrival="61.00" arrivalLane="44884008#2_0" arrivalPos="75.75" arrivalSpeed="13.18" duration="9.00" routeLength="70.65" waitingTime="0.00" waitingCount="0" stopTime="0.00" timeLoss="3.27" rerouteNo="0" devices="tripinfo_64 fcd_64" vType="DEFAULT_VEHTYPE" speedFactor="0.97" vaporized=""/>
    <tripinfo id="65" depart="52.00" departLane="15420484#2_0" departPos="5.10" departSpeed="0.00" departDelay="0.00" arrival="61.00" arrivalLane="15420484#2_0" arrivalPos="75.31" arrivalSpeed="13.98" duration="9.00" routeLength="70.21" waitingTime="0.00" waitingCount="0" stopTime="0.00" timeLoss="3.64" rerouteNo="0" devices="tripinfo_65 fcd_65" vType="DEFAULT_VEHTYPE" speedFactor="1.08" vaporized=""/>
    <tripinfo id="29" depart="41.00" departLane="597602756#0_0" departPos="5.10" departSpeed="0.00" departDelay="17.80" arrival="62.00" arrivalLane="597602756#0_0" arrivalPos="320.49" arrivalSpeed="18.20" duration="21.00" routeLength="315.39" waitingTime="0.00" waitingCount="0" stopTime="0.00" timeLoss="4.71" rerouteNo="0" devices="tripinfo_29 fcd_29" vType="DEFAULT_VEHTYPE" speedFactor="0.87" vaporized=""/>
    <tripinfo id="67" depart="55.00" departLane="15420484#2_0" departPos="5.10" departSpeed="0.00" departDelay="1.40" arrival="63.00" arrivalLane="15420484#2_0" arrivalPos="75.31" arrivalSpeed="13.97" duration="8.00" routeLength="70.21" waitingTime="0.00" waitingCount="0" stopTime="0.00" timeLoss="2.90" rerouteNo="0" devices="tripinfo_67 fcd_67" vType="DEFAULT_VEHTYPE" speedFactor="1.02" vaporized=""/>
    <tripinfo id="31" depart="44.00" departLane="597602756#0_0" departPos="5.10" departSpeed="0.00" departDelay="19.20" arrival="65.00" arrivalLane="597602756#0_0" arrivalPos="320.49" arrivalSpeed="20.92" duration="21.00" routeLength="315.39" waitingTime="0.00" waitingCount="0" stopTime="0.00" timeLoss="5.26" rerouteNo="0" devices="tripinfo_31 fcd_31" vType="DEFAULT_VEHTYPE" speedFactor="0.95" vaporized=""/>
    <tripinfo id="69" depart="58.00" departLane="15420484#2_0" departPos="5.10" departSpeed="0.00" departDelay="2.80" arrival="67.00" arrivalLane="15420484#2_0" arrivalPos="75.31" arrivalSpeed="12.77" duration="9.00" routeLength="70.21" waitingTime="0.00" waitingCount="0" stopTime="0.00" timeLoss="2.89" rerouteNo="0" devices="tripinfo_69 fcd_69" vType="DEFAULT_VEHTYPE" speedFactor="0.94" vaporized=""/>
    <tripinfo id="33" depart="47.00" departLane="597602756#0_0" departPos="5.10" departSpeed="0.00" departDelay="20.60" arrival="68.00" arrivalLane="597602756#0_0" arrivalPos="320.49" arrivalSpeed="20.38" duration="21.00" routeLength="315.39" waitingTime="0.00" waitingCount="0" stopTime="0.00" timeLoss="4.94" rerouteNo="0" devices="tripinfo_33 fcd_33" vType="DEFAULT_VEHTYPE" speedFactor="0.93" vaporized=""/>
    <tripinfo id="34" depart="50.00" departLane="597602756#0_0" departPos="5.10" departSpeed="0.00" departDelay="22.80" arrival="70.00" arrivalLane="597602756#0_0" arrivalPos="320.49" arrivalSpeed="25.13" duration="20.00" routeLength="315.39" waitingTime="0.00" waitingCount="0" stopTime="0.00" timeLoss="7.10" rerouteNo="0" devices="tripinfo_34 fcd_34" vType="DEFAULT_VEHTYPE" speedFactor="1.18" vaporized=""/>
    <tripinfo id="71" depart="61.00" departLane="15420484#2_0" departPos="5.10" departSpeed="0.00" departDelay="4.20" arrival="70.00" arrivalLane="15420484#2_0" arrivalPos="75.31" arrivalSpeed="12.24" duration="9.00" routeLength="70.21" waitingTime="0.00" waitingCount="0" stopTime="0.00" timeLoss="3.35" rerouteNo="0" devices="tripinfo_71 fcd_71" vType="DEFAULT_VEHTYPE" speedFactor="0.91" vaporized=""/>
    <tripinfo id="35" depart="53.00" departLane="597602756#0_0" departPos="5.10" departSpeed="0.00" departDelay="25.00" arrival="72.00" arrivalLane="597602756#0_0" arrivalPos="320.49" arrivalSpeed="25.31" duration="19.00" routeLength="315.39" waitingTime="0.00" waitingCount="0" stopTime="0.00" timeLoss="6.28" rerouteNo="0" devices="tripinfo_35 fcd_35" vType="DEFAULT_VEHTYPE" speedFactor="1.15" vaporized=""/>
    <tripinfo id="61" depart="49.00" departLane="260998164#3_0" departPos="5.10" departSpeed="0.00" departDelay="0.20" arrival="72.00" arrivalLane="260998164#3_0" arrivalPos="413.24" arrivalSpeed="23.93" duration="23.00" routeLength="408.14" waitingTime="0.00" waitingCount="0" stopTime="0.00" timeLoss="6.51" rerouteNo="0" devices="tripinfo_61 fcd_61" vType="DEFAULT_VEHTYPE" speedFactor="0.90" vaporized=""/>
    <tripinfo id="73" depart="64.00" departLane="15420484#2_0" departPos="5.10" departSpeed="0.00" departDelay="5.60" arrival="73.00" arrivalLane="15420484#2_0" arrivalPos="75.31" arrivalSpeed="13.37" duration="9.00" routeLength="70.21" waitingTime="0.00" waitingCount="0" stopTime="0.00" timeLoss="3.91" rerouteNo="0" devices="tripinfo_73 fcd_73" vType="DEFAULT_VEHTYPE" speedFactor="1.04" vaporized=""/>
    <tripinfo id="62" depart="52.00" departLane="260998164#3_0" departPos="5.10" departSpeed="0.00" departDelay="2.40" arrival="74.00" arrivalLane="260998164#3_0" arrivalPos="413.24" arrivalSpeed="28.61" duration="22.00" routeLength="408.14" waitingTime="0.00" waitingCount="0" stopTime="0.00" timeLoss="8.61" rerouteNo="0" devices="tripinfo_62 fcd_62" vType="DEFAULT_VEHTYPE" speedFactor="1.14" vaporized=""/>
    <tripinfo id="36" depart="56.00" departLane="597602756#0_0" departPos="5.10" departSpeed="0.00" departDelay="27.20" arrival="76.00" arrivalLane="597602756#0_0" arrivalPos="320.49" arrivalSpeed="21.77" duration="20.00" routeLength="315.39" waitingTime="0.00" waitingCount="0" stopTime="0.00" timeLoss="5.84" rerouteNo="0" devices="tripinfo_36 fcd_36" vType="DEFAULT_VEHTYPE" speedFactor="1.01" vaporized=""/>
    <tripinfo id="85" depart="68.00" departLane="44884008#2_0" departPos="5.10" departSpeed="0.00" departDelay="0.00" arrival="76.00" arrivalLane="44884008#2_0" arrivalPos="75.75" arrivalSpeed="14.05" duration="8.00" routeLength="70.65" waitingTime="0.00" waitingCount="0" stopTime="0.00" timeLoss="3.14" rerouteNo="0" devices="tripinfo_85 fcd_85" vType="DEFAULT_VEHTYPE" speedFactor="1.09" vaporized=""/>
    <tripinfo id="37" depart="59.00" departLane="597602756#0_0" departPos="5.10" departSpeed="0.00" departDelay="29.40" arrival="78.00" arrivalLane="597602756#0_0" arrivalPos="320.49" arrivalSpeed="25.59" duration="19.00" routeLength="315.39" waitingTime="0.00" waitingCount="0" stopTime="0.00" timeLoss="6.70" rerouteNo="0" devices="tripinfo_37 fcd_37" vType="DEFAULT_VEHTYPE" speedFactor="1.17" vaporized=""/>
    <tripinfo id="63" depart="55.00" departLane="260998164#3_0" departPos="5.10" departSpeed="0.00" departDelay="4.60" arrival="78.00" arrivalLane="260998164#3_0" arrivalPos="413.24" arrivalSpeed="27.44" duration="23.00" routeLength="408.14" waitingTime="0.00" waitingCount="0" stopTime="0.00" timeLoss="7.87" rerouteNo="0" devices="tripinfo_63 fcd_63" vType="DEFAULT_VEHTYPE" speedFactor="1.02" vaporized=""/>
    <tripinfo id="86" depart="69.00" departLane="15420484#2_0" departPos="5.10" departSpeed="0.00" departDelay="0.20" arrival="78.00" arrivalLane="15420484#2_0" arrivalPos="75.31" arrivalSpeed="14.20" duration="9.00" routeLength="70.21" waitingTime="0.00" waitingCount="0" stopTime="0.00" timeLoss="3.15" rerouteNo="0" devices="tripinfo_86 fcd_86" vType="DEFAULT_VEHTYPE" speedFactor="1.03" vaporized=""/>
    <tripinfo id="88" depart="72.00" departLane="15420484#2_0" departPos="5.10" departSpeed="0.00" departDelay="1.60" arrival="81.00" arrivalLane="15420484#2_0" arrivalPos="75.31" arrivalSpeed="13.61" duration="9.00" routeLength="70.21" waitingTime="0.00" waitingCount="0" stopTime="0.00" timeLoss="3.75" rerouteNo="0" devices="tripinfo_88 fcd_88" vType="DEFAULT_VEHTYPE" speedFactor="1.02" vaporized=""/>
    <tripinfo id="38" depart="62.00" departLane="597602756#0_0" departPos="5.10" departSpeed="0.00" departDelay="31.60" arrival="82.00" arrivalLane="597602756#0_0" arrivalPos="320.49" arrivalSpeed="20.87" duration="20.00" routeLength="315.39" waitingTime="0.00" waitingCount="0" stopTime="0.00" timeLoss="5.01" rerouteNo="0" devices="tripinfo_38 fcd_38" vType="DEFAULT_VEHTYPE" speedFactor="0.99" vaporized=""/>
    <tripinfo id="90" depart="75.00" departLane="15420484#2_0" departPos="5.10" departSpeed="0.00" departDelay="3.00" arrival="84.00" arrivalLane="15420484#2_0" arrivalPos="75.31" arrivalSpeed="14.94" duration="9.00" routeLength="70.21" waitingTime="0.00" waitingCount="0" stopTime="0.00" timeLoss="3.96" rerouteNo="0" devices="tripinfo_90 fcd_90" vType="DEFAULT_VEHTYPE" speedFactor="1.15" vaporized=""/>
    <tripinfo id="39" depart="65.00" departLane="597602756#0_0" departPos="5.10" departSpeed="0.00" departDelay="33.80" arrival="85.00" arrivalLane="597602756#0_0" arrivalPos="320.49" arrivalSpeed="22.01" duration="20.00" routeLength="315.39" waitingTime="0.00" waitingCount="0" stopTime="0.00" timeLoss="5.20" rerouteNo="0" devices="tripinfo_39 fcd_39" vType="DEFAULT_VEHTYPE" speedFactor="1.02" vaporized=""/>
    <tripinfo id="81" depart="65.00" departLane="260998164#3_0" departPos="5.10" departSpeed="0.00" departDelay="0.20" arrival="86.00" arrivalLane="260998164#3_0" arrivalPos="413.24" arrivalSpeed="28.34" duration="21.00" routeLength="408.14" waitingTime="0.00" waitingCount="0" stopTime="0.00" timeLoss="6.77" rerouteNo="0" devices="tripinfo_81 fcd_81" vType="DEFAULT_VEHTYPE" speedFactor="1.03" vaporized=""/>
    <tripinfo id="92" depart="78.00" departLane="15420484#2_0" departPos="5.10" departSpeed="0.00" departDelay="4.40" arrival="86.00" arrivalLane="15420484#2_0" arrivalPos="75.31" arrivalSpeed="12.94" duration="8.00" routeLength="70.21" waitingTime="0.00" waitingCount="0" stopTime="0.00" timeLoss="2.70" rerouteNo="0" devices="tripinfo_92 fcd_92" vType="DEFAULT_VEHTYPE" speedFactor="1.00" vaporized=""/>
    <tripinfo id="45" depart="68.00" departLane="597602756#0_0" departPos="5.10" departSpeed="0.00" departDelay="32.00" arrival="89.00" arrivalLane="597602756#0_0" arrivalPos="320.49" arrivalSpeed="20.11" duration="21.00" routeLength="315.39" waitingTime="0.00" waitingCount="0" stopTime="0.00" timeLoss="5.62" rerouteNo="0" devices="tripinfo_45 fcd_45" vType="DEFAULT_VEHTYPE" speedFactor="0.96" vaporized=""/>
    <tripinfo id="94" depart="81.00" departLane="15420484#2_0" departPos="5.10" departSpeed="0.00" departDelay="5.80" arrival="90.00" arrivalLane="15420484#2_0" arrivalPos="75.31" arrivalSpeed="13.05" duration="9.00" routeLength="70.21" waitingTime="0.00" waitingCount="0" stopTime="0.00" timeLoss="3.30" rerouteNo="0" devices="tripinfo_94 fcd_94" vType="DEFAULT_VEHTYPE" speedFactor="1.01" vaporized=""/>
    <tripinfo id="47" depart="71.00" departLane="597602756#0_0" departPos="5.10" departSpeed="0.00" departDelay="33.40" arrival="91.00" arrivalLane="597602756#0_0" arrivalPos="320.49" arrivalSpeed="23.02" duration="20.00" routeLength="315.39" waitingTime="0.00" waitingCount="0" stopTime="0.00" timeLoss="5.96" rerouteNo="0" devices="tripinfo_47 fcd_47" vType="DEFAULT_VEHTYPE" speedFactor="1.04" vaporized=""/>
    <tripinfo id="82" depart="68.00" departLane="260998164#3_0" departPos="5.10" departSpeed="0.00" departDelay="2.40" arrival="91.00" arrivalLane="260998164#3_0" arrivalPos="413.24" arrivalSpeed="27.26" duration="23.00" routeLength="408.14" waitingTime="0.00" waitingCount="0" stopTime="0.00" timeLoss="7.13" rerouteNo="0" devices="tripinfo_82 fcd_82" vType="DEFAULT_VEHTYPE" speedFactor="0.98" vaporized=""/>
    <tripinfo id="50" depart="74.00" departLane="597602756#0_0" departPos="5.10" departSpeed="0.00" departDelay="34.00" arrival="93.00" arrivalLane="597602756#0_0" arrivalPos="320.49" arrivalSpeed="24.04" duration="19.00" routeLength="315.39" waitingTime="0.00" waitingCount="0" stopTime="0.00" timeLoss="5.78" rerouteNo="0" devices="tripinfo_50 fcd_50" vType="DEFAULT_VEHTYPE" speedFactor="1.09" vaporized=""/>
    <tripinfo id="83" depart="71.00" departLane="260998164#3_0" departPos="5.10" departSpeed="0.00" departDelay="4.60" arrival="93.00" arrivalLane="260998164#3_0" arrivalPos="413.24" arrivalSpeed="27.81" duration="22.00" routeLength="408.14" waitingTime="0.00" waitingCount="0" stopTime="0.00" timeLoss="6.93" rerouteNo="0" devices="tripinfo_83 fcd_83" vType="DEFAULT_VEHTYPE" speedFactor="1.01" vaporized=""/>
    <tripinfo id="106" depart="85.00" departLane="44884008#2_0" departPos="5.10" departSpeed="0.00" departDelay="0.20" arrival="94.00" arrivalLane="44884008#2_0" arrivalPos="75.75" arrivalSpeed="14.39" duration="9.00" routeLength="70.65" waitingTime="0.00" waitingCount="0" stopTime="0.00" timeLoss="3.69" rerouteNo="0" devices="tripinfo_106 fcd_106" vType="DEFAULT_VEHTYPE" speedFactor="1.10" vaporized=""/>
    <tripinfo id="107" depart="86.00" departLane="15420484#2_0" departPos="5.10" departSpeed="0.00" departDelay="0.40" arrival="95.00" arrivalLane="15420484#2_0" arrivalPos="75.31" arrivalSpeed="13.62" duration="9.00" routeLength="70.21" waitingTime="0.00" waitingCount="0" stopTime="0.00" timeLoss="3.65" rerouteNo="0" devices="tripinfo_107 fcd_107" vType="DEFAULT_VEHTYPE" speedFactor="1.07" vaporized=""/>
    <tripinfo id="52" depart="77.00" departLane="597602756#0_0" departPos="5.10" departSpeed="0.00" departDelay="35.40" arrival="98.00" arrivalLane="597602756#0_0" arrivalPos="320.49" arrivalSpeed="19.61" duration="21.00" routeLength="315.39" waitingTime="0.00" waitingCount="0" stopTime="0.00" timeLoss="5.23" rerouteNo="0" devices="tripinfo_52 fcd_52" vType="DEFAULT_VEHTYPE" speedFactor="0.90" vaporized=""/>
    <tripinfo id="109" depart="89.00" departLane="15420484#2_0" departPos="5.10" departSpeed="0.00" departDelay="1.80" arrival="98.00" arrivalLane="15420484#2_0" arrivalPos="75.31" arrivalSpeed="13.09" duration="9.00" routeLength="70.21" waitingTime="0.00" waitingCount="0" stopTime="0.00" timeLoss="3.12" rerouteNo="0" devices="tripinfo_109 fcd_109" vType="DEFAULT_VEHTYPE" speedFactor="0.97" vaporized=""/>
    <tripinfo id="112" depart="92.00" departLane="15420484#2_0" departPos="5.10" departSpeed="0.00" departDelay="2.40" arrival="101.00" arrivalLane="15420484#2_0" arrivalPos="75.31" arrivalSpeed="11.35" duration="9.00" routeLength="70.21" waitingTime="0.00" waitingCount="0" stopTime="0.00" timeLoss="2.78" rerouteNo="0" devices="tripinfo_112 fcd_112" vType="DEFAULT_VEHTYPE" speedFactor="0.89" vaporized=""/>