<?xml version="1.0" encoding="UTF-8"?>

<!-- generated on Thu Jan  7 11:55:47 2021 by Eclipse SUMO GUI Version 1.2.0
<configuration xmlns:xsi="http://www.w3.org/2001/XMLSchema-instance" xsi:noNamespaceSchemaLocation="http://sumo.dlr.de/xsd/sumoConfiguration.xsd">

    <input>
        <net-file value="test.net.xml"/>
        <route-files value="test.rou.xml"/>
    </input>

    <output>
        <netstate-dump value="test_dump.xml"/>
        <fcd-output value="testTrace.xml"/>
        <tripinfo-output value="trips.trips.xml"/>
    </output>

    <time>
        <begin value="0"/>
        <end value="200000"/>
    </time>

    <traci_server>
        <remote-port value="61249"/>
    </traci_server>

</configuration>
-->

<tripinfos xmlns:xsi="http://www.w3.org/2001/XMLSchema-instance" xsi:noNamespaceSchemaLocation="http://sumo.dlr.de/xsd/tripinfo_file.xsd">
    <tripinfo id="4" depart="5.00" departLane="44884821#2_0" departPos="5.10" departSpeed="0.00" departDelay="0.00" arrival="16.00" arrivalLane="44884821#8_0" arrivalPos="7.47" arrivalSpeed="17.91" duration="11.00" routeLength="118.77" waitingTime="0.00" waitingCount="0" stopTime="0.00" timeLoss="4.18" rerouteNo="0" devices="tripinfo_4 fcd_4" vType="DEFAULT_VEHTYPE" speedFactor="0.83" vaporized=""/>
    <tripinfo id="11" depart="13.00" departLane="597602756#5_0" departPos="5.10" departSpeed="0.00" departDelay="-0.75" arrival="19.00" arrivalLane="-597602756#5_0" arrivalPos="9.69" arrivalSpeed="7.27" duration="6.00" routeLength="18.96" waitingTime="0.00" waitingCount="0" stopTime="0.00" timeLoss="3.55" rerouteNo="0" devices="tripinfo_11 fcd_11" vType="DEFAULT_VEHTYPE" speedFactor="0.99" vaporized=""/>
    <tripinfo id="6" depart="7.00" departLane="422685677#1_0" departPos="5.10" departSpeed="0.00" departDelay="-0.50" arrival="21.00" arrivalLane="422685680#2_0" arrivalPos="0.20" arrivalSpeed="10.18" duration="14.00" routeLength="128.29" waitingTime="0.00" waitingCount="0" stopTime="0.00" timeLoss="8.91" rerouteNo="0" devices="tripinfo_6 fcd_6" vType="DEFAULT_VEHTYPE" speedFactor="0.94" vaporized=""/>
    <tripinfo id="8" depart="10.00" departLane="-597602755#1_0" departPos="5.10" departSpeed="0.00" departDelay="0.00" arrival="21.00" arrivalLane="597602756#8_0" arrivalPos="0.20" arrivalSpeed="2.69" duration="11.00" routeLength="60.11" waitingTime="0.00" waitingCount="0" stopTime="0.00" timeLoss="5.85" rerouteNo="0" devices="tripinfo_8 fcd_8" vType="DEFAULT_VEHTYPE" speedFactor="1.09" vaporized=""/>
    <tripinfo id="5" depart="6.00" departLane="422685672_0" departPos="5.10" departSpeed="0.00" departDelay="-0.25" arrival="33.00" arrivalLane="-44884008#0_0" arrivalPos="0.52" arrivalSpeed="4.08" duration="27.00" routeLength="335.44" waitingTime="0.00" waitingCount="0" stopTime="0.00" timeLoss="10.90" rerouteNo="0" devices="tripinfo_5 fcd_5" vType="DEFAULT_VEHTYPE" speedFactor="0.89" vaporized=""/>
    <tripinfo id="17" depart="21.00" departLane="422685678#0_0" departPos="5.10" departSpeed="0.00" departDelay="-0.25" arrival="35.00" arrivalLane="422685678#1_0" arrivalPos="19.52" arrivalSpeed="25.91" duration="14.00" routeLength="177.13" waitingTime="0.00" waitingCount="0" stopTime="0.00" timeLoss="7.03" rerouteNo="0" devices="tripinfo_17 fcd_17" vType="DEFAULT_VEHTYPE" speedFactor="0.98" vaporized=""/>
    <tripinfo id="1" depart="1.00" departLane="422685653_0" departPos="5.10" departSpeed="0.00" departDelay="-0.25" arrival="41.00" arrivalLane="-44884821#8_0" arrivalPos="7.47" arrivalSpeed="6.67" duration="40.00" routeLength="411.92" waitingTime="0.00" waitingCount="0" stopTime="0.00" timeLoss="20.69" rerouteNo="0" devices="tripinfo_1 fcd_1" vType="DEFAULT_VEHTYPE" speedFactor="1.01" vaporized=""/>
    <tripinfo id="12" depart="15.00" departLane="314681894#0_0" departPos="1.75" departSpeed="0.00" departDelay="0.00" arrival="43.00" arrivalLane="422685677#1_1" arrivalPos="47.93" arrivalSpeed="21.29" duration="28.00" routeLength="319.98" waitingTime="0.00" waitingCount="0" stopTime="0.00" timeLoss="13.90" rerouteNo="0" devices="tripinfo_12 fcd_12" vType="DEFAULT_VEHTYPE" speedFactor="0.93" vaporized=""/>
    <tripinfo id="40" depart="0.00" departLane="314681894#1_0" departPos="3.59" departSpeed="0.00" departDelay="0.00" arrival="44.00" arrivalLane="260994551#0_0" arrivalPos="13.29" arrivalSpeed="9.93" duration="44.00" routeLength="398.22" waitingTime="8.00" waitingCount="1" stopTime="0.00" timeLoss="26.99" rerouteNo="6" devices="tripinfo_40 fcd_40" vType="DEFAULT_VEHTYPE" speedFactor="0.94" vaporized=""/>
    <tripinfo id="13" depart="16.00" departLane="-15420484#1_0" departPos="5.10" departSpeed="0.00" departDelay="-0.25" arrival="46.00" arrivalLane="260998164#1_1" arrivalPos="137.33" arrivalSpeed="26.10" duration="30.00" routeLength="409.35" waitingTime="0.00" waitingCount="0" stopTime="0.00" timeLoss="7.41" rerouteNo="0" devices="tripinfo_13 fcd_13" vType="DEFAULT_VEHTYPE" speedFactor="0.94" vaporized=""/>
    <tripinfo id="44" depart="20.00" departLane="-422685675#1_0" departPos="2.24" departSpeed="0.00" departDelay="0.00" arrival="47.00" arrivalLane="422685675#0_0" arrivalPos="20.63" arrivalSpeed="19.36" duration="27.00" routeLength="219.92" waitingTime="3.00" waitingCount="1" stopTime="0.00" timeLoss="17.64" rerouteNo="6" devices="tripinfo_44 fcd_44" vType="DEFAULT_VEHTYPE" speedFactor="1.01" vaporized=""/>
    <tripinfo id="45" depart="25.00" departLane="314681894#1_0" departPos="3.59" departSpeed="0.00" departDelay="0.00" arrival="50.00" arrivalLane="-422685673_0" arrivalPos="45.09" arrivalSpeed="24.28" duration="25.00" routeLength="451.44" waitingTime="0.00" waitingCount="0" stopTime="0.00" timeLoss="6.61" rerouteNo="4" devices="tripinfo_45 fcd_45" vType="DEFAULT_VEHTYPE" speedFactor="0.92" vaporized=""/>
    <tripinfo id="15" depart="18.00" departLane="597602756#3_0" departPos="5.10" departSpeed="0.00" departDelay="-0.75" arrival="53.00" arrivalLane="44884821#10_0" arrivalPos="40.18" arrivalSpeed="13.46" duration="35.00" routeLength="298.15" waitingTime="4.00" waitingCount="1" stopTime="0.00" timeLoss="20.76" rerouteNo="0" devices="tripinfo_15 fcd_15" vType="DEFAULT_VEHTYPE" speedFactor="1.16" vaporized=""/>
    <tripinfo id="24" depart="30.00" departLane="422685679#0_0" departPos="5.10" departSpeed="0.00" departDelay="0.00" arrival="54.00" arrivalLane="-422685673_0" arrivalPos="45.09" arrivalSpeed="32.19" duration="24.00" routeLength="524.97" waitingTime="0.00" waitingCount="0" stopTime="0.00" timeLoss="7.36" rerouteNo="0" devices="tripinfo_24 fcd_24" vType="DEFAULT_VEHTYPE" speedFactor="1.18" vaporized=""/>
    <tripinfo id="0" depart="0.00" departLane="-44884821#11_0" departPos="0.20" departSpeed="0.00" departDelay="0.00" arrival="60.00" arrivalLane="-15420484#3_0" arrivalPos="78.07" arrivalSpeed="13.76" duration="60.00" routeLength="717.08" waitingTime="3.00" waitingCount="1" stopTime="0.00" timeLoss="17.50" rerouteNo="0" devices="tripinfo_0 fcd_0" vType="DEFAULT_VEHTYPE" speedFactor="1.06" vaporized=""/>
    <tripinfo id="41" depart="5.00" departLane="-422685675#0_0" departPos="5.10" departSpeed="0.00" departDelay="0.00" arrival="66.00" arrivalLane="44884008#4_0" arrivalPos="102.16" arrivalSpeed="13.49" duration="61.00" routeLength="826.55" waitingTime="0.00" waitingCount="0" stopTime="0.00" timeLoss="18.74" rerouteNo="11" devices="tripinfo_41 fcd_41" vType="DEFAULT_VEHTYPE" speedFactor="1.05" vaporized=""/>
    <tripinfo id="36" depart="45.00" departLane="-44884821#5_0" departPos="5.10" departSpeed="0.00" departDelay="0.00" arrival="67.00" arrivalLane="-597602756#6_0" arrivalPos="15.61" arrivalSpeed="13.00" duration="22.00" routeLength="191.50" waitingTime="0.00" waitingCount="0" stopTime="0.00" timeLoss="11.87" rerouteNo="0" devices="tripinfo_36 fcd_36" vType="DEFAULT_VEHTYPE" speedFactor="1.04" vaporized=""/>
    <tripinfo id="42" depart="10.00" departLane="422685673_0" departPos="5.10" departSpeed="0.00" departDelay="0.00" arrival="71.00" arrivalLane="44884821#6_0" arrivalPos="10.40" arrivalSpeed="21.74" duration="61.00" routeLength="749.74" waitingTime="3.00" waitingCount="1" stopTime="0.00" timeLoss="31.92" rerouteNo="8" devices="tripinfo_42 fcd_42" vType="DEFAULT_VEHTYPE" speedFactor="1.03" vaporized=""/>
    <tripinfo id="9" depart="11.00" departLane="15373567_0" departPos="5.10" departSpeed="0.00" departDelay="-0.25" arrival="71.00" arrivalLane="-597602756#4_0" arrivalPos="28.00" arrivalSpeed="11.15" duration="60.00" routeLength="652.10" waitingTime="0.00" waitingCount="0" stopTime="0.00" timeLoss="17.48" rerouteNo="0" devices="tripinfo_9 fcd_9" vType="DEFAULT_VEHTYPE" speedFactor="1.05" vaporized=""/>
    <tripinfo id="10" depart="12.00" departLane="44884008#4_0" departPos="5.10" departSpeed="0.00" departDelay="-0.50" arrival="71.00" arrivalLane="44884821#2_0" arrivalPos="16.41" arrivalSpeed="7.42" duration="59.00" routeLength="546.98" waitingTime="6.00" waitingCount="2" stopTime="0.00" timeLoss="31.43" rerouteNo="0" devices="tripinfo_10 fcd_10" vType="DEFAULT_VEHTYPE" speedFactor="1.12" vaporized=""/>
    <tripinfo id="22" depart="27.00" departLane="-15420484#5_0" departPos="5.10" departSpeed="0.00" departDelay="-0.50" arrival="71.00" arrivalLane="-15420484#1_0" arrivalPos="77.98" arrivalSpeed="14.96" duration="44.00" routeLength="556.15" waitingTime="0.00" waitingCount="0" stopTime="0.00" timeLoss="8.00" rerouteNo="0" devices="tripinfo_22 fcd_22" vType="DEFAULT_VEHTYPE" speedFactor="1.13" vaporized=""/>
    <tripinfo id="34" depart="42.00" departLane="260994551#1_0" departPos="5.10" departSpeed="0.00" departDelay="-0.50" arrival="71.00" arrivalLane="-44884821#9_0" arrivalPos="13.09" arrivalSpeed="7.22" duration="29.00" routeLength="333.45" waitingTime="0.00" waitingCount="0" stopTime="0.00" timeLoss="14.04" rerouteNo="0" devices="tripinfo_34 fcd_34" vType="DEFAULT_VEHTYPE" speedFactor="1.09" vaporized=""/>
    <tripinfo id="16" depart="20.00" departLane="-393625823#1_0" departPos="5.10" departSpeed="0.00" departDelay="0.00" arrival="72.00" arrivalLane="597602756#2_0" arrivalPos="138.71" arrivalSpeed="21.49" duration="52.00" routeLength="695.44" waitingTime="0.00" waitingCount="0" stopTime="0.00" timeLoss="10.21" rerouteNo="0" devices="tripinfo_16 fcd_16" vType="DEFAULT_VEHTYPE" speedFactor="1.02" vaporized=""/>
    <tripinfo id="25" depart="31.00" departLane="318908683#1_0" departPos="0.20" departSpeed="0.00" departDelay="-0.25" arrival="75.00" arrivalLane="318908337#1_0" arrivalPos="0.20" arrivalSpeed="13.28" duration="44.00" routeLength="164.70" waitingTime="28.00" waitingCount="1" stopTime="0.00" timeLoss="31.16" rerouteNo="0" devices="tripinfo_25 fcd_25" vType="DEFAULT_VEHTYPE" speedFactor="1.01" vaporized=""/>
    <tripinfo id="46" depart="30.00" departLane="422685677#0_0" departPos="5.10" departSpeed="0.00" departDelay="0.00" arrival="79.00" arrivalLane="-44884821#1_0" arrivalPos="81.79" arrivalSpeed="18.32" duration="49.00" routeLength="460.43" waitingTime="0.00" waitingCount="0" stopTime="0.00" timeLoss="30.28" rerouteNo="5" devices="tripinfo_46 fcd_46" vType="DEFAULT_VEHTYPE" speedFactor="1.15" vaporized=""/>
</tripinfos>
